+ 0 /NodeList/2/DeviceList/1/$ns3::CsmaNetDevice/TxQueue/Enqueue ns3::EthernetHeader ( length/type=0xa0ed, source=00:00:00:00:00:02, destination=33:33:ff:00:00:02) ns3::SixLowPanIphc (TF_DSCP_ELIDED(0, 1) NH(0) HLIM_COMPR_255(255) CID(0) SAC(1) SAM (0) M(1) DAC(0) DAM (1)) ns3::Icmpv6NS (( type = 135 (NS) code = 0 target = fe80::200:ff:fe00:2 checksum = 6266)) ns3::Icmpv6OptionLinkLayerAddress (( type = 1 length = 1 L2 Address = 00-06-00:00:00:00:00:02)) Payload (size=2) ns3::EthernetTrailer (fcs=0)
- 0 /NodeList/2/DeviceList/1/$ns3::CsmaNetDevice/TxQueue/Dequeue ns3::EthernetHeader ( length/type=0xa0ed, source=00:00:00:00:00:02, destination=33:33:ff:00:00:02) ns3::SixLowPanIphc (TF_DSCP_ELIDED(0, 1) NH(0) HLIM_COMPR_255(255) CID(0) SAC(1) SAM (0) M(1) DAC(0) DAM (1)) ns3::Icmpv6NS (( type = 135 (NS) code = 0 target = fe80::200:ff:fe00:2 checksum = 6266)) ns3::Icmpv6OptionLinkLayerAddress (( type = 1 length = 1 L2 Address = 00-06-00:00:00:00:00:02)) Payload (size=2) ns3::EthernetTrailer (fcs=0)
+ 0 /NodeList/2/DeviceList/1/$ns3::CsmaNetDevice/TxQueue/Enqueue ns3::EthernetHeader ( length/type=0xa0ed, source=00:00:00:00:00:02, destination=33:33:ff:00:00:02) ns3::SixLowPanIphc (TF_DSCP_ELIDED(0, 1) NH(0) HLIM_COMPR_255(255) CID(0) SAC(1) SAM (0) M(1) DAC(0) DAM (1)) ns3::Icmpv6NS (( type = 135 (NS) code = 0 target = 2001:2::200:ff:fe00:2 checksum = 38488)) ns3::Icmpv6OptionLinkLayerAddress (( type = 1 length = 1 L2 Address = 00-06-00:00:00:00:00:02)) Payload (size=2) ns3::EthernetTrailer (fcs=0)
- 0.0001216 /NodeList/2/DeviceList/1/$ns3::CsmaNetDevice/TxQueue/Dequeue ns3::EthernetHeader ( length/type=0xa0ed, source=00:00:00:00:00:02, destination=33:33:ff:00:00:02) ns3::SixLowPanIphc (TF_DSCP_ELIDED(0, 1) NH(0) HLIM_COMPR_255(255) CID(0) SAC(1) SAM (0) M(1) DAC(0) DAM (1)) ns3::Icmpv6NS (( type = 135 (NS) code = 0 target = 2001:2::200:ff:fe00:2 checksum = 38488)) ns3::Icmpv6OptionLinkLayerAddress (( type = 1 length = 1 L2 Address = 00-06-00:00:00:00:00:02)) Payload (size=2) ns3::EthernetTrailer (fcs=0)
+ 0.001 /NodeList/1/DeviceList/2/$ns3::CsmaNetDevice/TxQueue/Enqueue ns3::EthernetHeader ( length/type=0xa0ed, source=00:00:00:00:00:04, destination=33:33:ff:00:00:04) ns3::SixLowPanIphc (TF_DSCP_ELIDED(0, 1) NH(0) HLIM_COMPR_255(255) CID(0) SAC(1) SAM (0) M(1) DAC(0) DAM (1)) ns3::Icmpv6NS (( type = 135 (NS) code = 0 target = 2001:1::200:ff:fe00:4 checksum = 37208)) ns3::Icmpv6OptionLinkLayerAddress (( type = 1 length = 1 L2 Address = 00-06-00:00:00:00:00:04)) Payload (size=2) ns3::EthernetTrailer (fcs=0)
- 0.001 /NodeList/1/DeviceList/2/$ns3::CsmaNetDevice/TxQueue/Dequeue ns3::EthernetHeader ( length/type=0xa0ed, source=00:00:00:00:00:04, destination=33:33:ff:00:00:04) ns3::SixLowPanIphc (TF_DSCP_ELIDED(0, 1) NH(0) HLIM_COMPR_255(255) CID(0) SAC(1) SAM (0) M(1) DAC(0) DAM (1)) ns3::Icmpv6NS (( type = 135 (NS) code = 0 target = 2001:1::200:ff:fe00:4 checksum = 37208)) ns3::Icmpv6OptionLinkLayerAddress (( type = 1 length = 1 L2 Address = 00-06-00:00:00:00:00:04)) Payload (size=2) ns3::EthernetTrailer (fcs=0)
+ 0.001 /NodeList/1/DeviceList/1/$ns3::CsmaNetDevice/TxQueue/Enqueue ns3::EthernetHeader ( length/type=0xa0ed, source=00:00:00:00:00:01, destination=33:33:ff:00:00:01) ns3::SixLowPanIphc (TF_DSCP_ELIDED(0, 1) NH(0) HLIM_COMPR_255(255) CID(0) SAC(1) SAM (0) M(1) DAC(0) DAM (1)) ns3::Icmpv6NS (( type = 135 (NS) code = 0 target = fe80::200:ff:fe00:1 checksum = 7034)) ns3::Icmpv6OptionLinkLayerAddress (( type = 1 length = 1 L2 Address = 00-06-00:00:00:00:00:01)) Payload (size=2) ns3::EthernetTrailer (fcs=0)
- 0.001 /NodeList/1/DeviceList/1/$ns3::CsmaNetDevice/TxQueue/Dequeue ns3::EthernetHeader ( length/type=0xa0ed, source=00:00:00:00:00:01, destination=33:33:ff:00:00:01) ns3::SixLowPanIphc (TF_DSCP_ELIDED(0, 1) NH(0) HLIM_COMPR_255(255) CID(0) SAC(1) SAM (0) M(1) DAC(0) DAM (1)) ns3::Icmpv6NS (( type = 135 (NS) code = 0 target = fe80::200:ff:fe00:1 checksum = 7034)) ns3::Icmpv6OptionLinkLayerAddress (( type = 1 length = 1 L2 Address = 00-06-00:00:00:00:00:01)) Payload (size=2) ns3::EthernetTrailer (fcs=0)
+ 0.001 /NodeList/1/DeviceList/4/$ns3::CsmaNetDevice/TxQueue/Enqueue ns3::EthernetHeader ( length/type=0xa0ed, source=00:00:00:00:00:07, destination=33:33:ff:00:00:07) ns3::SixLowPanIphc (TF_DSCP_ELIDED(0, 1) NH(0) HLIM_COMPR_255(255) CID(0) SAC(1) SAM (0) M(1) DAC(0) DAM (1)) ns3::Icmpv6NS (( type = 135 (NS) code = 0 target = fe80::200:ff:fe00:7 checksum = 2426)) ns3::Icmpv6OptionLinkLayerAddress (( type = 1 length = 1 L2 Address = 00-06-00:00:00:00:00:07)) Payload (size=2) ns3::EthernetTrailer (fcs=0)
- 0.001 /NodeList/1/DeviceList/4/$ns3::CsmaNetDevice/TxQueue/Dequeue ns3::EthernetHeader ( length/type=0xa0ed, source=00:00:00:00:00:07, destination=33:33:ff:00:00:07) ns3::SixLowPanIphc (TF_DSCP_ELIDED(0, 1) NH(0) HLIM_COMPR_255(255) CID(0) SAC(1) SAM (0) M(1) DAC(0) DAM (1)) ns3::Icmpv6NS (( type = 135 (NS) code = 0 target = fe80::200:ff:fe00:7 checksum = 2426)) ns3::Icmpv6OptionLinkLayerAddress (( type = 1 length = 1 L2 Address = 00-06-00:00:00:00:00:07)) Payload (size=2) ns3::EthernetTrailer (fcs=0)
+ 0.001 /NodeList/4/DeviceList/1/$ns3::CsmaNetDevice/TxQueue/Enqueue ns3::EthernetHeader ( length/type=0xa0ed, source=00:00:00:00:00:08, destination=33:33:ff:00:00:08) ns3::SixLowPanIphc (TF_DSCP_ELIDED(0, 1) NH(0) HLIM_COMPR_255(255) CID(0) SAC(1) SAM (0) M(1) DAC(0) DAM (1)) ns3::Icmpv6NS (( type = 135 (NS) code = 0 target = fe80::200:ff:fe00:8 checksum = 1658)) ns3::Icmpv6OptionLinkLayerAddress (( type = 1 length = 1 L2 Address = 00-06-00:00:00:00:00:08)) Payload (size=2) ns3::EthernetTrailer (fcs=0)
- 0.001 /NodeList/4/DeviceList/1/$ns3::CsmaNetDevice/TxQueue/Dequeue ns3::EthernetHeader ( length/type=0xa0ed, source=00:00:00:00:00:08, destination=33:33:ff:00:00:08) ns3::SixLowPanIphc (TF_DSCP_ELIDED(0, 1) NH(0) HLIM_COMPR_255(255) CID(0) SAC(1) SAM (0) M(1) DAC(0) DAM (1)) ns3::Icmpv6NS (( type = 135 (NS) code = 0 target = fe80::200:ff:fe00:8 checksum = 1658)) ns3::Icmpv6OptionLinkLayerAddress (( type = 1 length = 1 L2 Address = 00-06-00:00:00:00:00:08)) Payload (size=2) ns3::EthernetTrailer (fcs=0)
+ 0.001 /NodeList/5/DeviceList/1/$ns3::CsmaNetDevice/TxQueue/Enqueue ns3::EthernetHeader ( length/type=0xa0ed, source=00:00:00:00:00:0a, destination=33:33:ff:00:00:0a) ns3::SixLowPanIphc (TF_DSCP_ELIDED(0, 1) NH(0) HLIM_COMPR_255(255) CID(0) SAC(1) SAM (0) M(1) DAC(0) DAM (1)) ns3::Icmpv6NS (( type = 135 (NS) code = 0 target = 2001:5::200:ff:fe00:a checksum = 31576)) ns3::Icmpv6OptionLinkLayerAddress (( type = 1 length = 1 L2 Address = 00-06-00:00:00:00:00:0a)) Payload (size=2) ns3::EthernetTrailer (fcs=0)
- 0.001 /NodeList/5/DeviceList/1/$ns3::CsmaNetDevice/TxQueue/Dequeue ns3::EthernetHeader ( length/type=0xa0ed, source=00:00:00:00:00:0a, destination=33:33:ff:00:00:0a) ns3::SixLowPanIphc (TF_DSCP_ELIDED(0, 1) NH(0) HLIM_COMPR_255(255) CID(0) SAC(1) SAM (0) M(1) DAC(0) DAM (1)) ns3::Icmpv6NS (( type = 135 (NS) code = 0 target = 2001:5::200:ff:fe00:a checksum = 31576)) ns3::Icmpv6OptionLinkLayerAddress (( type = 1 length = 1 L2 Address = 00-06-00:00:00:00:00:0a)) Payload (size=2) ns3::EthernetTrailer (fcs=0)
+ 0.002 /NodeList/1/DeviceList/3/$ns3::CsmaNetDevice/TxQueue/Enqueue ns3::EthernetHeader ( length/type=0xa0ed, source=00:00:00:00:00:05, destination=33:33:ff:00:00:05) ns3::SixLowPanIphc (TF_DSCP_ELIDED(0, 1) NH(0) HLIM_COMPR_255(255) CID(0) SAC(1) SAM (0) M(1) DAC(0) DAM (1)) ns3::Icmpv6NS (( type = 135 (NS) code = 0 target = 2001:3::200:ff:fe00:5 checksum = 35928)) ns3::Icmpv6OptionLinkLayerAddress (( type = 1 length = 1 L2 Address = 00-06-00:00:00:00:00:05)) Payload (size=2) ns3::EthernetTrailer (fcs=0)
- 0.002 /NodeList/1/DeviceList/3/$ns3::CsmaNetDevice/TxQueue/Dequeue ns3::EthernetHeader ( length/type=0xa0ed, source=00:00:00:00:00:05, destination=33:33:ff:00:00:05) ns3::SixLowPanIphc (TF_DSCP_ELIDED(0, 1) NH(0) HLIM_COMPR_255(255) CID(0) SAC(1) SAM (0) M(1) DAC(0) DAM (1)) ns3::Icmpv6NS (( type = 135 (NS) code = 0 target = 2001:3::200:ff:fe00:5 checksum = 35928)) ns3::Icmpv6OptionLinkLayerAddress (( type = 1 length = 1 L2 Address = 00-06-00:00:00:00:00:05)) Payload (size=2) ns3::EthernetTrailer (fcs=0)
+ 0.002 /NodeList/4/DeviceList/1/$ns3::CsmaNetDevice/TxQueue/Enqueue ns3::EthernetHeader ( length/type=0xa0ed, source=00:00:00:00:00:08, destination=33:33:ff:00:00:08) ns3::SixLowPanIphc (TF_DSCP_ELIDED(0, 1) NH(0) HLIM_COMPR_255(255) CID(0) SAC(1) SAM (0) M(1) DAC(0) DAM (1)) ns3::Icmpv6NS (( type = 135 (NS) code = 0 target = 2001:4::200:ff:fe00:8 checksum = 33368)) ns3::Icmpv6OptionLinkLayerAddress (( type = 1 length = 1 L2 Address = 00-06-00:00:00:00:00:08)) Payload (size=2) ns3::EthernetTrailer (fcs=0)
r 0.0021024 /NodeList/1/DeviceList/1/$ns3::CsmaNetDevice/MacRx ns3::EthernetHeader ( length/type=0xa0ed, source=00:00:00:00:00:02, destination=33:33:ff:00:00:02) ns3::SixLowPanIphc (TF_DSCP_ELIDED(0, 1) NH(0) HLIM_COMPR_255(255) CID(0) SAC(1) SAM (0) M(1) DAC(0) DAM (1)) ns3::Icmpv6NS (( type = 135 (NS) code = 0 target = fe80::200:ff:fe00:2 checksum = 6266)) ns3::Icmpv6OptionLinkLayerAddress (( type = 1 length = 1 L2 Address = 00-06-00:00:00:00:00:02)) Payload (size=2) ns3::EthernetTrailer (fcs=0)
r 0.0031024 /NodeList/0/DeviceList/1/$ns3::CsmaNetDevice/MacRx ns3::EthernetHeader ( length/type=0xa0ed, source=00:00:00:00:00:04, destination=33:33:ff:00:00:04) ns3::SixLowPanIphc (TF_DSCP_ELIDED(0, 1) NH(0) HLIM_COMPR_255(255) CID(0) SAC(1) SAM (0) M(1) DAC(0) DAM (1)) ns3::Icmpv6NS (( type = 135 (NS) code = 0 target = 2001:1::200:ff:fe00:4 checksum = 37208)) ns3::Icmpv6OptionLinkLayerAddress (( type = 1 length = 1 L2 Address = 00-06-00:00:00:00:00:04)) Payload (size=2) ns3::EthernetTrailer (fcs=0)
r 0.0031024 /NodeList/4/DeviceList/1/$ns3::CsmaNetDevice/MacRx ns3::EthernetHeader ( length/type=0xa0ed, source=00:00:00:00:00:07, destination=33:33:ff:00:00:07) ns3::SixLowPanIphc (TF_DSCP_ELIDED(0, 1) NH(0) HLIM_COMPR_255(255) CID(0) SAC(1) SAM (0) M(1) DAC(0) DAM (1)) ns3::Icmpv6NS (( type = 135 (NS) code = 0 target = fe80::200:ff:fe00:7 checksum = 2426)) ns3::Icmpv6OptionLinkLayerAddress (( type = 1 length = 1 L2 Address = 00-06-00:00:00:00:00:07)) Payload (size=2) ns3::EthernetTrailer (fcs=0)
r 0.0031024 /NodeList/1/DeviceList/5/$ns3::CsmaNetDevice/MacRx ns3::EthernetHeader ( length/type=0xa0ed, source=00:00:00:00:00:0a, destination=33:33:ff:00:00:0a) ns3::SixLowPanIphc (TF_DSCP_ELIDED(0, 1) NH(0) HLIM_COMPR_255(255) CID(0) SAC(1) SAM (0) M(1) DAC(0) DAM (1)) ns3::Icmpv6NS (( type = 135 (NS) code = 0 target = 2001:5::200:ff:fe00:a checksum = 31576)) ns3::Icmpv6OptionLinkLayerAddress (( type = 1 length = 1 L2 Address = 00-06-00:00:00:00:00:0a)) Payload (size=2) ns3::EthernetTrailer (fcs=0)
- 0.0035456 /NodeList/4/DeviceList/1/$ns3::CsmaNetDevice/TxQueue/Dequeue ns3::EthernetHeader ( length/type=0xa0ed, source=00:00:00:00:00:08, destination=33:33:ff:00:00:08) ns3::SixLowPanIphc (TF_DSCP_ELIDED(0, 1) NH(0) HLIM_COMPR_255(255) CID(0) SAC(1) SAM (0) M(1) DAC(0) DAM (1)) ns3::Icmpv6NS (( type = 135 (NS) code = 0 target = 2001:4::200:ff:fe00:8 checksum = 33368)) ns3::Icmpv6OptionLinkLayerAddress (( type = 1 length = 1 L2 Address = 00-06-00:00:00:00:00:08)) Payload (size=2) ns3::EthernetTrailer (fcs=0)
+ 0.004 /NodeList/1/DeviceList/5/$ns3::CsmaNetDevice/TxQueue/Enqueue ns3::EthernetHeader ( length/type=0xa0ed, source=00:00:00:00:00:09, destination=33:33:ff:00:00:09) ns3::SixLowPanIphc (TF_DSCP_ELIDED(0, 1) NH(0) HLIM_COMPR_255(255) CID(0) SAC(1) SAM (0) M(1) DAC(0) DAM (1)) ns3::Icmpv6NS (( type = 135 (NS) code = 0 target = 2001:5::200:ff:fe00:9 checksum = 32344)) ns3::Icmpv6OptionLinkLayerAddress (( type = 1 length = 1 L2 Address = 00-06-00:00:00:00:00:09)) Payload (size=2) ns3::EthernetTrailer (fcs=0)
- 0.004 /NodeList/1/DeviceList/5/$ns3::CsmaNetDevice/TxQueue/Dequeue ns3::EthernetHeader ( length/type=0xa0ed, source=00:00:00:00:00:09, destination=33:33:ff:00:00:09) ns3::SixLowPanIphc (TF_DSCP_ELIDED(0, 1) NH(0) HLIM_COMPR_255(255) CID(0) SAC(1) SAM (0) M(1) DAC(0) DAM (1)) ns3::Icmpv6NS (( type = 135 (NS) code = 0 target = 2001:5::200:ff:fe00:9 checksum = 32344)) ns3::Icmpv6OptionLinkLayerAddress (( type = 1 length = 1 L2 Address = 00-06-00:00:00:00:00:09)) Payload (size=2) ns3::EthernetTrailer (fcs=0)
r 0.0041024 /NodeList/3/DeviceList/1/$ns3::CsmaNetDevice/MacRx ns3::EthernetHeader ( length/type=0xa0ed, source=00:00:00:00:00:05, destination=33:33:ff:00:00:05) ns3::SixLowPanIphc (TF_DSCP_ELIDED(0, 1) NH(0) HLIM_COMPR_255(255) CID(0) SAC(1) SAM (0) M(1) DAC(0) DAM (1)) ns3::Icmpv6NS (( type = 135 (NS) code = 0 target = 2001:3::200:ff:fe00:5 checksum = 35928)) ns3::Icmpv6OptionLinkLayerAddress (( type = 1 length = 1 L2 Address = 00-06-00:00:00:00:00:05)) Payload (size=2) ns3::EthernetTrailer (fcs=0)
r 0.0042384 /NodeList/2/DeviceList/1/$ns3::CsmaNetDevice/MacRx ns3::EthernetHeader ( length/type=0xa0ed, source=00:00:00:00:00:01, destination=33:33:ff:00:00:01) ns3::SixLowPanIphc (TF_DSCP_ELIDED(0, 1) NH(0) HLIM_COMPR_255(255) CID(0) SAC(1) SAM (0) M(1) DAC(0) DAM (1)) ns3::Icmpv6NS (( type = 135 (NS) code = 0 target = fe80::200:ff:fe00:1 checksum = 7034)) ns3::Icmpv6OptionLinkLayerAddress (( type = 1 length = 1 L2 Address = 00-06-00:00:00:00:00:01)) Payload (size=2) ns3::EthernetTrailer (fcs=0)
+ 0.005 /NodeList/1/DeviceList/5/$ns3::CsmaNetDevice/TxQueue/Enqueue ns3::EthernetHeader ( length/type=0xa0ed, source=00:00:00:00:00:09, destination=33:33:ff:00:00:09) ns3::SixLowPanIphc (TF_DSCP_ELIDED(0, 1) NH(0) HLIM_COMPR_255(255) CID(0) SAC(1) SAM (0) M(1) DAC(0) DAM (1)) ns3::Icmpv6NS (( type = 135 (NS) code = 0 target = fe80::200:ff:fe00:9 checksum = 890)) ns3::Icmpv6OptionLinkLayerAddress (( type = 1 length = 1 L2 Address = 00-06-00:00:00:00:00:09)) Payload (size=2) ns3::EthernetTrailer (fcs=0)
- 0.005 /NodeList/1/DeviceList/5/$ns3::CsmaNetDevice/TxQueue/Dequeue ns3::EthernetHeader ( length/type=0xa0ed, source=00:00:00:00:00:09, destination=33:33:ff:00:00:09) ns3::SixLowPanIphc (TF_DSCP_ELIDED(0, 1) NH(0) HLIM_COMPR_255(255) CID(0) SAC(1) SAM (0) M(1) DAC(0) DAM (1)) ns3::Icmpv6NS (( type = 135 (NS) code = 0 target = fe80::200:ff:fe00:9 checksum = 890)) ns3::Icmpv6OptionLinkLayerAddress (( type = 1 length = 1 L2 Address = 00-06-00:00:00:00:00:09)) Payload (size=2) ns3::EthernetTrailer (fcs=0)
r 0.0055264 /NodeList/1/DeviceList/4/$ns3::CsmaNetDevice/MacRx ns3::EthernetHeader ( length/type=0xa0ed, source=00:00:00:00:00:08, destination=33:33:ff:00:00:08) ns3::SixLowPanIphc (TF_DSCP_ELIDED(0, 1) NH(0) HLIM_COMPR_255(255) CID(0) SAC(1) SAM (0) M(1) DAC(0) DAM (1)) ns3::Icmpv6NS (( type = 135 (NS) code = 0 target = fe80::200:ff:fe00:8 checksum = 1658)) ns3::Icmpv6OptionLinkLayerAddress (( type = 1 length = 1 L2 Address = 00-06-00:00:00:00:00:08)) Payload (size=2) ns3::EthernetTrailer (fcs=0)
+ 0.006 /NodeList/5/DeviceList/1/$ns3::CsmaNetDevice/TxQueue/Enqueue ns3::EthernetHeader ( length/type=0xa0ed, source=00:00:00:00:00:0a, destination=33:33:ff:00:00:0a) ns3::SixLowPanIphc (TF_DSCP_ELIDED(0, 1) NH(0) HLIM_COMPR_255(255) CID(0) SAC(1) SAM (0) M(1) DAC(0) DAM (1)) ns3::Icmpv6NS (( type = 135 (NS) code = 0 target = fe80::200:ff:fe00:a checksum = 122)) ns3::Icmpv6OptionLinkLayerAddress (( type = 1 length = 1 L2 Address = 00-06-00:00:00:00:00:0a)) Payload (size=2) ns3::EthernetTrailer (fcs=0)
- 0.006 /NodeList/5/DeviceList/1/$ns3::CsmaNetDevice/TxQueue/Dequeue ns3::EthernetHeader ( length/type=0xa0ed, source=00:00:00:00:00:0a, destination=33:33:ff:00:00:0a) ns3::SixLowPanIphc (TF_DSCP_ELIDED(0, 1) NH(0) HLIM_COMPR_255(255) CID(0) SAC(1) SAM (0) M(1) DAC(0) DAM (1)) ns3::Icmpv6NS (( type = 135 (NS) code = 0 target = fe80::200:ff:fe00:a checksum = 122)) ns3::Icmpv6OptionLinkLayerAddress (( type = 1 length = 1 L2 Address = 00-06-00:00:00:00:00:0a)) Payload (size=2) ns3::EthernetTrailer (fcs=0)
r 0.0061024 /NodeList/5/DeviceList/1/$ns3::CsmaNetDevice/MacRx ns3::EthernetHeader ( length/type=0xa0ed, source=00:00:00:00:00:09, destination=33:33:ff:00:00:09) ns3::SixLowPanIphc (TF_DSCP_ELIDED(0, 1) NH(0) HLIM_COMPR_255(255) CID(0) SAC(1) SAM (0) M(1) DAC(0) DAM (1)) ns3::Icmpv6NS (( type = 135 (NS) code = 0 target = 2001:5::200:ff:fe00:9 checksum = 32344)) ns3::Icmpv6OptionLinkLayerAddress (( type = 1 length = 1 L2 Address = 00-06-00:00:00:00:00:09)) Payload (size=2) ns3::EthernetTrailer (fcs=0)
+ 0.007 /NodeList/0/DeviceList/1/$ns3::CsmaNetDevice/TxQueue/Enqueue ns3::EthernetHeader ( length/type=0xa0ed, source=00:00:00:00:00:03, destination=33:33:ff:00:00:03) ns3::SixLowPanIphc (TF_DSCP_ELIDED(0, 1) NH(0) HLIM_COMPR_255(255) CID(0) SAC(1) SAM (0) M(1) DAC(0) DAM (1)) ns3::Icmpv6NS (( type = 135 (NS) code = 0 target = 2001:1::200:ff:fe00:3 checksum = 37976)) ns3::Icmpv6OptionLinkLayerAddress (( type = 1 length = 1 L2 Address = 00-06-00:00:00:00:00:03)) Payload (size=2) ns3::EthernetTrailer (fcs=0)
- 0.007 /NodeList/0/DeviceList/1/$ns3::CsmaNetDevice/TxQueue/Dequeue ns3::EthernetHeader ( length/type=0xa0ed, source=00:00:00:00:00:03, destination=33:33:ff:00:00:03) ns3::SixLowPanIphc (TF_DSCP_ELIDED(0, 1) NH(0) HLIM_COMPR_255(255) CID(0) SAC(1) SAM (0) M(1) DAC(0) DAM (1)) ns3::Icmpv6NS (( type = 135 (NS) code = 0 target = 2001:1::200:ff:fe00:3 checksum = 37976)) ns3::Icmpv6OptionLinkLayerAddress (( type = 1 length = 1 L2 Address = 00-06-00:00:00:00:00:03)) Payload (size=2) ns3::EthernetTrailer (fcs=0)
+ 0.007 /NodeList/1/DeviceList/2/$ns3::CsmaNetDevice/TxQueue/Enqueue ns3::EthernetHeader ( length/type=0xa0ed, source=00:00:00:00:00:04, destination=33:33:ff:00:00:04) ns3::SixLowPanIphc (TF_DSCP_ELIDED(0, 1) NH(0) HLIM_COMPR_255(255) CID(0) SAC(1) SAM (0) M(1) DAC(0) DAM (1)) ns3::Icmpv6NS (( type = 135 (NS) code = 0 target = fe80::200:ff:fe00:4 checksum = 4730)) ns3::Icmpv6OptionLinkLayerAddress (( type = 1 length = 1 L2 Address = 00-06-00:00:00:00:00:04)) Payload (size=2) ns3::EthernetTrailer (fcs=0)
- 0.007 /NodeList/1/DeviceList/2/$ns3::CsmaNetDevice/TxQueue/Dequeue ns3::EthernetHeader ( length/type=0xa0ed, source=00:00:00:00:00:04, destination=33:33:ff:00:00:04) ns3::SixLowPanIphc (TF_DSCP_ELIDED(0, 1) NH(0) HLIM_COMPR_255(255) CID(0) SAC(1) SAM (0) M(1) DAC(0) DAM (1)) ns3::Icmpv6NS (( type = 135 (NS) code = 0 target = fe80::200:ff:fe00:4 checksum = 4730)) ns3::Icmpv6OptionLinkLayerAddress (( type = 1 length = 1 L2 Address = 00-06-00:00:00:00:00:04)) Payload (size=2) ns3::EthernetTrailer (fcs=0)
+ 0.007 /NodeList/1/DeviceList/3/$ns3::CsmaNetDevice/TxQueue/Enqueue ns3::EthernetHeader ( length/type=0xa0ed, source=00:00:00:00:00:05, destination=33:33:ff:00:00:05) ns3::SixLowPanIphc (TF_DSCP_ELIDED(0, 1) NH(0) HLIM_COMPR_255(255) CID(0) SAC(1) SAM (0) M(1) DAC(0) DAM (1)) ns3::Icmpv6NS (( type = 135 (NS) code = 0 target = fe80::200:ff:fe00:5 checksum = 3962)) ns3::Icmpv6OptionLinkLayerAddress (( type = 1 length = 1 L2 Address = 00-06-00:00:00:00:00:05)) Payload (size=2) ns3::EthernetTrailer (fcs=0)
- 0.007 /NodeList/1/DeviceList/3/$ns3::CsmaNetDevice/TxQueue/Dequeue ns3::EthernetHeader ( length/type=0xa0ed, source=00:00:00:00:00:05, destination=33:33:ff:00:00:05) ns3::SixLowPanIphc (TF_DSCP_ELIDED(0, 1) NH(0) HLIM_COMPR_255(255) CID(0) SAC(1) SAM (0) M(1) DAC(0) DAM (1)) ns3::Icmpv6NS (( type = 135 (NS) code = 0 target = fe80::200:ff:fe00:5 checksum = 3962)) ns3::Icmpv6OptionLinkLayerAddress (( type = 1 length = 1 L2 Address = 00-06-00:00:00:00:00:05)) Payload (size=2) ns3::EthernetTrailer (fcs=0)
+ 0.007 /NodeList/3/DeviceList/1/$ns3::CsmaNetDevice/TxQueue/Enqueue ns3::EthernetHeader ( length/type=0xa0ed, source=00:00:00:00:00:06, destination=33:33:ff:00:00:06) ns3::SixLowPanIphc (TF_DSCP_ELIDED(0, 1) NH(0) HLIM_COMPR_255(255) CID(0) SAC(1) SAM (0) M(1) DAC(0) DAM (1)) ns3::Icmpv6NS (( type = 135 (NS) code = 0 target = fe80::200:ff:fe00:6 checksum = 3194)) ns3::Icmpv6OptionLinkLayerAddress (( type = 1 length = 1 L2 Address = 00-06-00:00:00:00:00:06)) Payload (size=2) ns3::EthernetTrailer (fcs=0)
- 0.007 /NodeList/3/DeviceList/1/$ns3::CsmaNetDevice/TxQueue/Dequeue ns3::EthernetHeader ( length/type=0xa0ed, source=00:00:00:00:00:06, destination=33:33:ff:00:00:06) ns3::SixLowPanIphc (TF_DSCP_ELIDED(0, 1) NH(0) HLIM_COMPR_255(255) CID(0) SAC(1) SAM (0) M(1) DAC(0) DAM (1)) ns3::Icmpv6NS (( type = 135 (NS) code = 0 target = fe80::200:ff:fe00:6 checksum = 3194)) ns3::Icmpv6OptionLinkLayerAddress (( type = 1 length = 1 L2 Address = 00-06-00:00:00:00:00:06)) Payload (size=2) ns3::EthernetTrailer (fcs=0)
r 0.007065 /NodeList/1/DeviceList/1/$ns3::CsmaNetDevice/MacRx ns3::EthernetHeader ( length/type=0xa0ed, source=00:00:00:00:00:02, destination=33:33:ff:00:00:02) ns3::SixLowPanIphc (TF_DSCP_ELIDED(0, 1) NH(0) HLIM_COMPR_255(255) CID(0) SAC(1) SAM (0) M(1) DAC(0) DAM (1)) ns3::Icmpv6NS (( type = 135 (NS) code = 0 target = 2001:2::200:ff:fe00:2 checksum = 38488)) ns3::Icmpv6OptionLinkLayerAddress (( type = 1 length = 1 L2 Address = 00-06-00:00:00:00:00:02)) Payload (size=2) ns3::EthernetTrailer (fcs=0)
+ 0.008 /NodeList/1/DeviceList/1/$ns3::CsmaNetDevice/TxQueue/Enqueue ns3::EthernetHeader ( length/type=0xa0ed, source=00:00:00:00:00:01, destination=33:33:ff:00:00:01) ns3::SixLowPanIphc (TF_DSCP_ELIDED(0, 1) NH(0) HLIM_COMPR_255(255) CID(0) SAC(1) SAM (0) M(1) DAC(0) DAM (1)) ns3::Icmpv6NS (( type = 135 (NS) code = 0 target = 2001:2::200:ff:fe00:1 checksum = 39256)) ns3::Icmpv6OptionLinkLayerAddress (( type = 1 length = 1 L2 Address = 00-06-00:00:00:00:00:01)) Payload (size=2) ns3::EthernetTrailer (fcs=0)
- 0.008 /NodeList/1/DeviceList/1/$ns3::CsmaNetDevice/TxQueue/Dequeue ns3::EthernetHeader ( length/type=0xa0ed, source=00:00:00:00:00:01, destination=33:33:ff:00:00:01) ns3::SixLowPanIphc (TF_DSCP_ELIDED(0, 1) NH(0) HLIM_COMPR_255(255) CID(0) SAC(1) SAM (0) M(1) DAC(0) DAM (1)) ns3::Icmpv6NS (( type = 135 (NS) code = 0 target = 2001:2::200:ff:fe00:1 checksum = 39256)) ns3::Icmpv6OptionLinkLayerAddress (( type = 1 length = 1 L2 Address = 00-06-00:00:00:00:00:01)) Payload (size=2) ns3::EthernetTrailer (fcs=0)
+ 0.008 /NodeList/1/DeviceList/4/$ns3::CsmaNetDevice/TxQueue/Enqueue ns3::EthernetHeader ( length/type=0xa0ed, source=00:00:00:00:00:07, destination=33:33:ff:00:00:07) ns3::SixLowPanIphc (TF_DSCP_ELIDED(0, 1) NH(0) HLIM_COMPR_255(255) CID(0) SAC(1) SAM (0) M(1) DAC(0) DAM (1)) ns3::Icmpv6NS (( type = 135 (NS) code = 0 target = 2001:4::200:ff:fe00:7 checksum = 34136)) ns3::Icmpv6OptionLinkLayerAddress (( type = 1 length = 1 L2 Address = 00-06-00:00:00:00:00:07)) Payload (size=2) ns3::EthernetTrailer (fcs=0)
- 0.008 /NodeList/1/DeviceList/4/$ns3::CsmaNetDevice/TxQueue/Dequeue ns3::EthernetHeader ( length/type=0xa0ed, source=00:00:00:00:00:07, destination=33:33:ff:00:00:07) ns3::SixLowPanIphc (TF_DSCP_ELIDED(0, 1) NH(0) HLIM_COMPR_255(255) CID(0) SAC(1) SAM (0) M(1) DAC(0) DAM (1)) ns3::Icmpv6NS (( type = 135 (NS) code = 0 target = 2001:4::200:ff:fe00:7 checksum = 34136)) ns3::Icmpv6OptionLinkLayerAddress (( type = 1 length = 1 L2 Address = 00-06-00:00:00:00:00:07)) Payload (size=2) ns3::EthernetTrailer (fcs=0)
r 0.008095 /NodeList/1/DeviceList/4/$ns3::CsmaNetDevice/MacRx ns3::EthernetHeader ( length/type=0xa0ed, source=00:00:00:00:00:08, destination=33:33:ff:00:00:08) ns3::SixLowPanIphc (TF_DSCP_ELIDED(0, 1) NH(0) HLIM_COMPR_255(255) CID(0) SAC(1) SAM (0) M(1) DAC(0) DAM (1)) ns3::Icmpv6NS (( type = 135 (NS) code = 0 target = 2001:4::200:ff:fe00:8 checksum = 33368)) ns3::Icmpv6OptionLinkLayerAddress (( type = 1 length = 1 L2 Address = 00-06-00:00:00:00:00:08)) Payload (size=2) ns3::EthernetTrailer (fcs=0)
r 0.0082214 /NodeList/1/DeviceList/5/$ns3::CsmaNetDevice/MacRx ns3::EthernetHeader ( length/type=0xa0ed, source=00:00:00:00:00:0a, destination=33:33:ff:00:00:0a) ns3::SixLowPanIphc (TF_DSCP_ELIDED(0, 1) NH(0) HLIM_COMPR_255(255) CID(0) SAC(1) SAM (0) M(1) DAC(0) DAM (1)) ns3::Icmpv6NS (( type = 135 (NS) code = 0 target = fe80::200:ff:fe00:a checksum = 122)) ns3::Icmpv6OptionLinkLayerAddress (( type = 1 length = 1 L2 Address = 00-06-00:00:00:00:00:0a)) Payload (size=2) ns3::EthernetTrailer (fcs=0)
+ 0.009 /NodeList/0/DeviceList/1/$ns3::CsmaNetDevice/TxQueue/Enqueue ns3::EthernetHeader ( length/type=0xa0ed, source=00:00:00:00:00:03, destination=33:33:ff:00:00:03) ns3::SixLowPanIphc (TF_DSCP_ELIDED(0, 1) NH(0) HLIM_COMPR_255(255) CID(0) SAC(1) SAM (0) M(1) DAC(0) DAM (1)) ns3::Icmpv6NS (( type = 135 (NS) code = 0 target = fe80::200:ff:fe00:3 checksum = 5498)) ns3::Icmpv6OptionLinkLayerAddress (( type = 1 length = 1 L2 Address = 00-06-00:00:00:00:00:03)) Payload (size=2) ns3::EthernetTrailer (fcs=0)
- 0.009 /NodeList/0/DeviceList/1/$ns3::CsmaNetDevice/TxQueue/Dequeue ns3::EthernetHeader ( length/type=0xa0ed, source=00:00:00:00:00:03, destination=33:33:ff:00:00:03) ns3::SixLowPanIphc (TF_DSCP_ELIDED(0, 1) NH(0) HLIM_COMPR_255(255) CID(0) SAC(1) SAM (0) M(1) DAC(0) DAM (1)) ns3::Icmpv6NS (( type = 135 (NS) code = 0 target = fe80::200:ff:fe00:3 checksum = 5498)) ns3::Icmpv6OptionLinkLayerAddress (( type = 1 length = 1 L2 Address = 00-06-00:00:00:00:00:03)) Payload (size=2) ns3::EthernetTrailer (fcs=0)
+ 0.009 /NodeList/3/DeviceList/1/$ns3::CsmaNetDevice/TxQueue/Enqueue ns3::EthernetHeader ( length/type=0xa0ed, source=00:00:00:00:00:06, destination=33:33:ff:00:00:06) ns3::SixLowPanIphc (TF_DSCP_ELIDED(0, 1) NH(0) HLIM_COMPR_255(255) CID(0) SAC(1) SAM (0) M(1) DAC(0) DAM (1)) ns3::Icmpv6NS (( type = 135 (NS) code = 0 target = 2001:3::200:ff:fe00:6 checksum = 35160)) ns3::Icmpv6OptionLinkLayerAddress (( type = 1 length = 1 L2 Address = 00-06-00:00:00:00:00:06)) Payload (size=2) ns3::EthernetTrailer (fcs=0)
r 0.0091024 /NodeList/1/DeviceList/2/$ns3::CsmaNetDevice/MacRx ns3::EthernetHeader ( length/type=0xa0ed, source=00:00:00:00:00:03, destination=33:33:ff:00:00:03) ns3::SixLowPanIphc (TF_DSCP_ELIDED(0, 1) NH(0) HLIM_COMPR_255(255) CID(0) SAC(1) SAM (0) M(1) DAC(0) DAM (1)) ns3::Icmpv6NS (( type = 135 (NS) code = 0 target = 2001:1::200:ff:fe00:3 checksum = 37976)) ns3::Icmpv6OptionLinkLayerAddress (( type = 1 length = 1 L2 Address = 00-06-00:00:00:00:00:03)) Payload (size=2) ns3::EthernetTrailer (fcs=0)
r 0.0091024 /NodeList/3/DeviceList/1/$ns3::CsmaNetDevice/MacRx ns3::EthernetHeader ( length/type=0xa0ed, source=00:00:00:00:00:05, destination=33:33:ff:00:00:05) ns3::SixLowPanIphc (TF_DSCP_ELIDED(0, 1) NH(0) HLIM_COMPR_255(255) CID(0) SAC(1) SAM (0) M(1) DAC(0) DAM (1)) ns3::Icmpv6NS (( type = 135 (NS) code = 0 target = fe80::200:ff:fe00:5 checksum = 3962)) ns3::Icmpv6OptionLinkLayerAddress (( type = 1 length = 1 L2 Address = 00-06-00:00:00:00:00:05)) Payload (size=2) ns3::EthernetTrailer (fcs=0)
- 0.0097086 /NodeList/3/DeviceList/1/$ns3::CsmaNetDevice/TxQueue/Dequeue ns3::EthernetHeader ( length/type=0xa0ed, source=00:00:00:00:00:06, destination=33:33:ff:00:00:06) ns3::SixLowPanIphc (TF_DSCP_ELIDED(0, 1) NH(0) HLIM_COMPR_255(255) CID(0) SAC(1) SAM (0) M(1) DAC(0) DAM (1)) ns3::Icmpv6NS (( type = 135 (NS) code = 0 target = 2001:3::200:ff:fe00:6 checksum = 35160)) ns3::Icmpv6OptionLinkLayerAddress (( type = 1 length = 1 L2 Address = 00-06-00:00:00:00:00:06)) Payload (size=2) ns3::EthernetTrailer (fcs=0)
r 0.0101024 /NodeList/2/DeviceList/1/$ns3::CsmaNetDevice/MacRx ns3::EthernetHeader ( length/type=0xa0ed, source=00:00:00:00:00:01, destination=33:33:ff:00:00:01) ns3::SixLowPanIphc (TF_DSCP_ELIDED(0, 1) NH(0) HLIM_COMPR_255(255) CID(0) SAC(1) SAM (0) M(1) DAC(0) DAM (1)) ns3::Icmpv6NS (( type = 135 (NS) code = 0 target = 2001:2::200:ff:fe00:1 checksum = 39256)) ns3::Icmpv6OptionLinkLayerAddress (( type = 1 length = 1 L2 Address = 00-06-00:00:00:00:00:01)) Payload (size=2) ns3::EthernetTrailer (fcs=0)
r 0.0103164 /NodeList/4/DeviceList/1/$ns3::CsmaNetDevice/MacRx ns3::EthernetHeader ( length/type=0xa0ed, source=00:00:00:00:00:07, destination=33:33:ff:00:00:07) ns3::SixLowPanIphc (TF_DSCP_ELIDED(0, 1) NH(0) HLIM_COMPR_255(255) CID(0) SAC(1) SAM (0) M(1) DAC(0) DAM (1)) ns3::Icmpv6NS (( type = 135 (NS) code = 0 target = 2001:4::200:ff:fe00:7 checksum = 34136)) ns3::Icmpv6OptionLinkLayerAddress (( type = 1 length = 1 L2 Address = 00-06-00:00:00:00:00:07)) Payload (size=2) ns3::EthernetTrailer (fcs=0)
r 0.0107064 /NodeList/5/DeviceList/1/$ns3::CsmaNetDevice/MacRx ns3::EthernetHeader ( length/type=0xa0ed, source=00:00:00:00:00:09, destination=33:33:ff:00:00:09) ns3::SixLowPanIphc (TF_DSCP_ELIDED(0, 1) NH(0) HLIM_COMPR_255(255) CID(0) SAC(1) SAM (0) M(1) DAC(0) DAM (1)) ns3::Icmpv6NS (( type = 135 (NS) code = 0 target = fe80::200:ff:fe00:9 checksum = 890)) ns3::Icmpv6OptionLinkLayerAddress (( type = 1 length = 1 L2 Address = 00-06-00:00:00:00:00:09)) Payload (size=2) ns3::EthernetTrailer (fcs=0)
r 0.0112464 /NodeList/0/DeviceList/1/$ns3::CsmaNetDevice/MacRx ns3::EthernetHeader ( length/type=0xa0ed, source=00:00:00:00:00:04, destination=33:33:ff:00:00:04) ns3::SixLowPanIphc (TF_DSCP_ELIDED(0, 1) NH(0) HLIM_COMPR_255(255) CID(0) SAC(1) SAM (0) M(1) DAC(0) DAM (1)) ns3::Icmpv6NS (( type = 135 (NS) code = 0 target = fe80::200:ff:fe00:4 checksum = 4730)) ns3::Icmpv6OptionLinkLayerAddress (( type = 1 length = 1 L2 Address = 00-06-00:00:00:00:00:04)) Payload (size=2) ns3::EthernetTrailer (fcs=0)
r 0.0116894 /NodeList/1/DeviceList/3/$ns3::CsmaNetDevice/MacRx ns3::EthernetHeader ( length/type=0xa0ed, source=00:00:00:00:00:06, destination=33:33:ff:00:00:06) ns3::SixLowPanIphc (TF_DSCP_ELIDED(0, 1) NH(0) HLIM_COMPR_255(255) CID(0) SAC(1) SAM (0) M(1) DAC(0) DAM (1)) ns3::Icmpv6NS (( type = 135 (NS) code = 0 target = fe80::200:ff:fe00:6 checksum = 3194)) ns3::Icmpv6OptionLinkLayerAddress (( type = 1 length = 1 L2 Address = 00-06-00:00:00:00:00:06)) Payload (size=2) ns3::EthernetTrailer (fcs=0)
r 0.0133704 /NodeList/1/DeviceList/2/$ns3::CsmaNetDevice/MacRx ns3::EthernetHeader ( length/type=0xa0ed, source=00:00:00:00:00:03, destination=33:33:ff:00:00:03) ns3::SixLowPanIphc (TF_DSCP_ELIDED(0, 1) NH(0) HLIM_COMPR_255(255) CID(0) SAC(1) SAM (0) M(1) DAC(0) DAM (1)) ns3::Icmpv6NS (( type = 135 (NS) code = 0 target = fe80::200:ff:fe00:3 checksum = 5498)) ns3::Icmpv6OptionLinkLayerAddress (( type = 1 length = 1 L2 Address = 00-06-00:00:00:00:00:03)) Payload (size=2) ns3::EthernetTrailer (fcs=0)